47
crest_best_TS1.log	Energy: -741402.3904473
O         -2.71452        0.57779       -1.36438
C         -2.38617        0.65302       -0.19446
N         -1.30737        1.35027        0.25036
H         -1.17633        1.42382        1.24540
C         -0.52591        2.21611       -0.62041
C          0.93932        2.10996       -0.25174
N          1.55016        3.17216        0.17842
N          2.78342        2.81629        0.64333
C          2.92544        1.52763        0.49910
N          1.78938        0.98330       -0.11470
C          1.47154       -0.36853       -0.49663
C          0.32618       -0.56663       -1.26851
C         -0.23252       -1.81382       -1.48732
C          0.34288       -2.93929       -0.92700
C          1.55018       -2.78791       -0.27098
C          2.16434       -1.53973       -0.10442
C          3.62429       -1.71168        0.13316
O          4.46609       -1.40934       -0.67557
O          3.90603       -2.38318        1.26806
H          4.85753       -2.57114        1.26472
H          2.08525       -3.65960        0.07597
H         -0.09961       -3.91765       -1.04377
H         -1.13161       -1.87903       -2.08136
H         -0.16459        0.26450       -1.72455
C          4.13576        0.88913        1.07688
H          3.88923        0.06478        1.74268
H          4.83248        0.53897        0.32316
H          4.61679        1.66477        1.66635
C         -1.01579        3.66394       -0.54845
H         -2.06385        3.67743       -0.84454
H         -0.91950        4.06327        0.45817
H         -0.44662        4.30187       -1.22037
H         -0.71205        1.88150       -1.63603
O         -2.99478        0.05407        0.84508
C         -4.17277       -0.80829        0.65218
C         -5.32533        0.00583        0.07550
H         -6.22515       -0.60928        0.05322
H         -5.10398        0.33913       -0.93393
H         -5.52325        0.87564        0.70205
C         -3.80920       -2.00218       -0.22413
H         -4.63727       -2.71125       -0.22670
H         -3.61034       -1.69312       -1.24571
H         -2.92810       -2.50619        0.17262
C         -4.48693       -1.26014        2.07255
H         -5.36061       -1.91076        2.06928
H         -4.69612       -0.40157        2.70962
H         -3.64593       -1.80948        2.49433
