44
crest_best_TS2.log	Energy: -716718.1828447
O         -3.74135        2.17991        0.26621
C         -2.82395        1.39358        0.13172
N         -1.52015        1.75074        0.04716
H         -1.29365        2.73208        0.05476
C         -0.45492        0.80979       -0.22474
C          0.85410        1.52368       -0.19902
N          0.87320        2.82171       -0.14726
N          2.16833        3.23457        0.00660
C          2.93247        2.18394        0.04310
N          2.15487        1.01381       -0.11937
C          2.67035       -0.33119       -0.10089
C          4.05690       -0.48502       -0.19880
C          4.70137       -1.68491        0.05128
C          3.97321       -2.80146        0.41983
C          2.59449       -2.70919        0.39772
C          1.92466       -1.52139        0.07976
C          0.53030       -1.81073       -0.36253
O          0.16662       -1.68271       -1.50546
O         -0.23436       -2.36576        0.59634
H         -1.08866       -2.59297        0.19510
H          1.99548       -3.59136        0.56986
H          4.45690       -3.73648        0.66073
H          5.77738       -1.72908       -0.03821
H          4.66375        0.34562       -0.48912
C          4.38178        2.36245        0.34913
H          4.71941        1.71200        1.15373
H          5.02753        2.21015       -0.51557
H          4.49025        3.39683        0.66430
H         -0.46482        0.03765        0.54238
H         -0.61133        0.32083       -1.18306
O         -2.93847        0.04570        0.05771
C         -4.24673       -0.61619        0.06942
C         -4.97049       -0.34071        1.38294
H         -5.24876        0.70532        1.46320
H         -5.87157       -0.95256        1.43380
H         -4.33207       -0.60299        2.22696
C         -5.05990       -0.18174       -1.14498
H         -5.98042       -0.76384       -1.19294
H         -5.31458        0.87221       -1.08522
H         -4.49479       -0.35936       -2.06018
C         -3.86991       -2.09022       -0.03558
H         -4.76705       -2.70636       -0.07622
H         -3.29055       -2.39528        0.83731
H         -3.28808       -2.26941       -0.94017
