44
int1.log	Energy: -716747.0454376
O          1.91951       -2.23198        0.06944
C          1.75356       -1.25818       -0.66090
N          0.64966       -1.10269       -1.44484
H         -0.01777       -1.85204       -1.38598
C          0.22419        0.16629       -2.03311
C         -0.12111        1.21642       -1.02556
N          0.61266        2.25958       -0.74588
N         -0.00437        2.95564        0.27381
C         -1.10202        2.31711        0.58762
N         -1.23676        1.21087       -0.21558
C         -2.33011        0.29640       -0.20682
C         -3.50478        0.66185       -0.85270
C         -4.59219       -0.20069       -0.86278
C         -4.49834       -1.44312       -0.24712
C         -3.31745       -1.82076        0.37464
C         -2.23096       -0.94927        0.42050
C         -0.96319       -1.34436        1.09986
O         -0.29468       -0.59692        1.77088
O         -0.62837       -2.61579        0.82956
H          0.35294       -2.69299        0.91024
H         -3.22972       -2.79226        0.83799
H         -5.34037       -2.12030       -0.25889
H         -5.50583        0.09417       -1.35896
H         -3.55365        1.62251       -1.34519
C         -2.05189        2.67117        1.66856
H         -3.05821        2.84093        1.28453
H         -2.10417        1.86771        2.40462
H         -1.70325        3.57680        2.15688
H          1.01454        0.57188       -2.65828
H         -0.63222       -0.05321       -2.66881
O          2.59603       -0.24696       -0.82054
C          3.68116        0.04372        0.14436
C          4.23907        1.35647       -0.38696
H          3.45623        2.11205       -0.41507
H          5.04567        1.70030        0.25979
H          4.63506        1.22411       -1.39369
C          3.07992        0.23153        1.53067
H          3.86259        0.56027        2.21452
H          2.30229        0.99285        1.50344
H          2.65220       -0.69185        1.90979
C          4.72634       -1.06279        0.09663
H          5.58352       -0.76977        0.70344
H          5.07048       -1.21433       -0.92663
H          4.32810       -1.99830        0.47768
