44
int3.log	Energy: -716745.6171257
O         -2.36221       -1.78104        1.68654
C         -1.68428       -1.57626        0.69764
N         -0.47885       -2.18047        0.49591
H         -0.21947       -2.83135        1.21777
C          0.34886       -2.10325       -0.69469
C          1.73943       -1.65455       -0.40425
N          2.82415       -2.31540       -0.70247
N          3.90740       -1.55261       -0.30628
C          3.44646       -0.45395        0.23128
N          2.07167       -0.46847        0.20310
C          1.20828        0.56016        0.67725
C          0.94535        0.59262        2.04112
C          0.14064        1.58300        2.58179
C         -0.41392        2.55011        1.75261
C         -0.17308        2.50751        0.39099
C          0.64004        1.52058       -0.17097
C          0.80950        1.58389       -1.64976
O          0.10865        2.25599       -2.36988
O          1.82278        0.83913       -2.12834
H          1.83668        0.95712       -3.09013
H         -0.61022        3.23921       -0.27104
H         -1.04199        3.32649        2.16493
H         -0.05640        1.59396        3.64410
H          1.37456       -0.17477        2.66836
C          4.24897        0.66922        0.77209
H          4.04641        1.59095        0.22449
H          4.02587        0.85309        1.82356
H          5.30271        0.42484        0.67238
H          0.42638       -3.07456       -1.18385
H         -0.13525       -1.42079       -1.38749
O         -1.98731       -0.74332       -0.31281
C         -3.32222       -0.12834       -0.43199
C         -3.20153        0.66937       -1.72379
H         -2.98648        0.00886       -2.56333
H         -4.13769        1.18911       -1.92479
H         -2.40243        1.40540       -1.65239
C         -4.37327       -1.22422       -0.56271
H         -5.34217       -0.77122       -0.77293
H         -4.12357       -1.89168       -1.38772
H         -4.45158       -1.80397        0.35280
C         -3.59653        0.79456        0.74904
H         -4.53223        1.32616        0.57359
H         -2.79967        1.52846        0.84667
H         -3.67557        0.23444        1.67520
