63
DBD-2-571-R-Beta.log	Energy: -1037784.7258250
C         -0.49118        2.49133        0.24494
N         -2.85220        1.97423       -0.06053
O         -0.33962        1.40486        0.81471
C         -1.88557        3.06267       -0.00680
N         -3.05240       -1.12728        0.95471
O         -2.00003        1.19260       -2.00439
C         -2.23938        4.04269        1.09752
N         -1.31749       -1.41993        2.26965
O          1.55836       -2.78920       -1.06031
C         -2.81518        1.09160       -1.06497
N         -2.43625       -1.15561        3.04708
O          1.82047        1.30601       -1.84638
C         -3.82478       -0.02016       -1.10915
N          0.44952       -1.10331       -0.03860
C         -4.64871       -0.06169       -2.22756
N          2.67323        0.48865        0.07152
C         -5.54475       -1.10271       -2.41082
N          0.53644        3.24458       -0.15736
C         -5.61578       -2.14248       -1.48878
C         -4.79825       -2.11574       -0.39357
C         -3.90457       -1.06842       -0.20206
C         -1.71193       -1.40190        1.02864
C         -3.46343       -0.99859        2.26274
C         -4.86367       -0.78365        2.67608
C         -0.85757       -1.71313       -0.16469
C          1.54424       -1.67134       -0.53982
C          2.84372       -0.85616       -0.47121
C          3.88924       -1.62941        0.33549
C          5.28773       -1.05902        0.20843
C          6.05275       -1.34868       -0.92170
C          7.37330       -0.85949       -1.00271
C          7.90262       -0.09071        0.00414
C          7.13890        0.21651        1.08869
C          5.83283       -0.26370        1.20141
C          2.12029        1.44905       -0.65906
C          1.89678        2.77680        0.05959
H         -4.88044       -0.58123        3.74387
H         -5.48041       -1.66290        2.48315
H         -5.32628        0.05330        2.14946
H         -0.71436       -2.78969       -0.25788
H         -1.34855       -1.37084       -1.07791
H          3.17183       -0.74764       -1.50261
H          3.58514       -1.65097        1.38526
H          3.86425       -2.65600       -0.02378
H          5.64883       -1.96535       -1.71284
H          7.97046       -1.10452       -1.87123
H          8.91965        0.27119       -0.06926
H          7.54538        0.82558        1.88603
H          5.25465       -0.03797        2.08856
H          2.07961        2.69063        1.13048
H          2.58288        3.51311       -0.35314
H         -3.38946        1.76590        0.76413
H         -1.89077        3.55458       -0.97984
H         -3.23339        4.46012        0.93903
H         -1.52310        4.86134        1.12158
H         -2.21694        3.54749        2.06936
H          0.46183       -0.16282        0.32751
H         -4.56450        0.72262       -2.96547
H          2.76288        0.61216        1.06578
H         -6.17747       -1.11228       -3.28735
H          0.37728        3.96617       -0.83834
H         -6.30130       -2.96380       -1.64185
H         -4.80292       -2.92370        0.32439
