41
crest_best_TS2.log	Energy: -692052.8747981
H          1.35146        3.34453        1.03499
C          1.56695        2.73560        0.17823
N          2.69192        2.74295       -0.47011
N          2.57593        1.82109       -1.48853
C          1.38865        1.27907       -1.41968
N          0.67815        1.83873       -0.36930
C         -0.61559        1.54929        0.14318
C         -1.41739        0.56763       -0.42061
C         -2.67057        0.28606        0.11614
C         -3.14088        0.98053        1.22585
C         -2.34216        1.96838        1.78261
C         -1.09476        2.25584        1.25085
H         -0.50604        3.03224        1.71077
H         -2.68890        2.52498        2.64131
H         -4.11024        0.75324        1.63999
C         -3.46298       -0.77992       -0.55012
O         -3.12310       -1.35903       -1.55479
O         -4.62429       -1.04504        0.08276
H         -5.06870       -1.74462       -0.41824
H         -1.09601       -0.02523       -1.25559
C          0.95230        0.30004       -2.45640
N          0.71411       -1.08139       -2.04404
C          1.05912       -1.76227       -0.91151
O          0.88946       -2.96107       -0.80396
O          1.55309       -0.94581        0.02956
C          1.85852       -1.43239        1.38690
C          0.58938       -1.97396        2.03519
H          0.78867       -2.19696        3.08354
H          0.24979       -2.87954        1.54186
H         -0.20322       -1.22646        1.99058
C          2.97876       -2.46347        1.32787
H          3.27551       -2.73061        2.34233
H          2.65843       -3.36036        0.80698
H          3.84649       -2.04558        0.81753
C          2.32630       -0.16820        2.09638
H          3.15902        0.28686        1.56270
H          2.64932       -0.41266        3.10753
H          1.51675        0.55716        2.16158
H          0.35743       -1.68849       -2.76305
H          1.74492        0.33217       -3.20368
H          0.03949        0.66376       -2.93517
