41
int1.log	Energy: -692058.8020329
H          4.04047        0.56238        1.20506
C          3.62313       -0.26904        0.66419
N          4.11168       -1.47592        0.59780
N          3.25508       -2.21940       -0.19152
C          2.28422       -1.43356       -0.58093
N          2.47009       -0.17697       -0.06310
C          1.65508        0.97727       -0.25443
C          1.86840        1.71113       -1.41342
C          1.12593        2.85341       -1.67224
C          0.17085        3.27517       -0.75750
C         -0.04465        2.54353        0.39673
C          0.67607        1.37827        0.66738
C          0.29502        0.66105        1.91769
O         -0.55550        1.06154        2.67812
O          0.96369       -0.48561        2.14002
H          0.62620       -0.85033        2.97196
H         -0.78731        2.85327        1.11460
H         -0.40906        4.16715       -0.94515
H          1.29848        3.41101       -2.58160
H          2.62493        1.37443       -2.10720
C          1.11171       -1.84207       -1.40661
N         -0.11416       -1.86196       -0.63354
C         -1.15869       -1.02643       -0.88581
O         -1.23915       -0.29424       -1.85260
O         -2.06642       -1.15053        0.10293
C         -3.38419       -0.49545        0.02851
C         -3.21938        1.01891        0.05656
H         -2.67403        1.31765        0.95016
H         -4.20438        1.48579        0.08507
H         -2.68836        1.37133       -0.82234
C         -4.06558       -0.98279        1.30054
H         -5.06403       -0.55308        1.37298
H         -3.49324       -0.68049        2.17671
H         -4.15425       -2.06871        1.29715
C         -4.13205       -0.97781       -1.20895
H         -5.15343       -0.59777       -1.18287
H         -3.65291       -0.62941       -2.11925
H         -4.17491       -2.06707       -1.22410
H         -0.12973       -2.37189        0.23292
H          0.95052       -1.15531       -2.23521
H          1.32989       -2.82802       -1.81445
