41
int2.log	Energy: -692055.6020170
H          2.24579       -1.38693        2.42727
C          1.54523       -1.59112        1.63649
N          0.78223       -2.64173        1.52607
N          0.04917       -2.49205        0.36474
C          0.38938       -1.35381       -0.18061
N          1.33628       -0.73373        0.59069
C          1.97395        0.52207        0.37622
C          1.25150        1.67680        0.63984
C          1.85200        2.91934        0.48549
C          3.18035        3.00691        0.08950
C          3.90246        1.85236       -0.17146
C          3.30667        0.59547       -0.05112
C          4.05968       -0.62318       -0.45256
O          3.56667       -1.65501       -0.83841
O          5.39658       -0.44656       -0.37215
H          5.80917       -1.26263       -0.69227
H          4.93117        1.91382       -0.49034
H          3.65329        3.97220       -0.02161
H          1.28114        3.81553        0.68298
H          0.21847        1.58569        0.93973
C         -0.15799       -0.80629       -1.46270
N         -1.60644       -0.83735       -1.51792
C         -2.32335       -0.01072       -0.70276
O         -1.83859        0.93221       -0.10312
O         -3.61382       -0.38019       -0.69641
C         -4.61292        0.33153        0.11935
C         -4.24480        0.23075        1.59559
H         -4.09050       -0.81133        1.87505
H         -5.06191        0.62860        2.19772
H         -3.34199        0.79206        1.81632
C         -5.89086       -0.44485       -0.17100
H         -6.72231       -0.00789        0.38086
H         -5.78267       -1.48606        0.13033
H         -6.12480       -0.41303       -1.23456
C         -4.73884        1.77551       -0.35335
H         -5.56666        2.25457        0.16997
H         -3.82885        2.33393       -0.15580
H         -4.94922        1.80550       -1.42257
H         -2.04229       -1.71350       -1.75292
H          0.17997        0.21779       -1.59839
H          0.22207       -1.39254       -2.29766
