41
int3.log	Energy: -692058.0048575
H         -4.04392        0.53513       -1.60147
C         -3.62330       -0.31752       -1.09701
N         -4.21657       -1.45331       -0.86567
N         -3.30826       -2.25522       -0.20072
C         -2.20639       -1.57057       -0.03781
N         -2.34778       -0.32415       -0.59690
C         -1.40059        0.72930       -0.75519
C         -0.96031        0.98019       -2.04959
C         -0.07248        2.01313       -2.30682
C          0.39030        2.79925       -1.26030
C         -0.03778        2.54618        0.03146
C         -0.94126        1.51750        0.31023
C         -1.40472        1.30700        1.70757
O         -2.23519        0.50538        2.06386
O         -0.80363        2.14380        2.57836
H         -1.15264        1.92928        3.45559
H          0.32502        3.14889        0.84770
H          1.08775        3.60287       -1.44748
H          0.25947        2.19589       -3.31899
H         -1.31961        0.34923       -2.84943
C         -0.99758       -2.07372        0.67450
N          0.23267       -1.88809       -0.06531
C          1.25862       -1.13337        0.41168
O          1.21721       -0.49476        1.44623
O          2.29852       -1.20051       -0.44166
C          3.57311       -0.52331       -0.14883
C          3.36286        0.98478       -0.08811
H          2.88441        1.33464       -1.00173
H          4.33029        1.47910        0.00413
H          2.74314        1.26145        0.75905
C          4.43030       -0.89885       -1.35073
H          5.41861       -0.45086       -1.25482
H          3.97425       -0.53987       -2.27282
H          4.54450       -1.98020       -1.41730
C          4.17462       -1.07826        1.13750
H          5.17531       -0.66732        1.27280
H          3.56938       -0.81621        2.00011
H          4.25800       -2.16358        1.07782
H          0.39198       -2.41455       -0.90690
H         -0.88206       -1.55222        1.62169
H         -1.17213       -3.12790        0.88661
